begin
comment structure_Pt9Ir3
lattice  11.193900   0.000000   0.000000
lattice  -5.596950   9.694202   0.000000
lattice   0.000000   0.000000  24.569900
atom   0.000000   0.000000   9.999949 Pt   0.000000   0.000000   0.000000   0.000000   0.000000
atom  -1.399237   2.423550   9.999949 Pt   0.000000   0.000000   0.000000   0.000000   0.000000
atom   1.399238   2.423550   9.999949 Pt   0.000000   0.000000   0.000000   0.000000   0.000000
atom   2.798475   0.000000   9.999949 Ir   0.000000   0.000000   0.000000   0.000000   0.000000
atom   2.798587   1.615636  12.284950 Pt   0.000000   0.000000   0.000000   0.000000   0.000000
atom   1.399349   4.039186  12.284950 Pt   0.000000   0.000000   0.000000   0.000000   0.000000
atom  -1.399126   4.039186  12.284950 Pt   0.000000   0.000000   0.000000   0.000000   0.000000
atom   0.000112   1.615636  12.284950 Ir   0.000000   0.000000   0.000000   0.000000   0.000000
atom   0.000000   3.220220  14.601154 Pt   0.000000   0.000000   0.000000   0.000000   0.000000
atom   1.389555   0.813440  14.601154 Pt   0.000000   0.000000   0.000000   0.000000   0.000000
atom   4.207451   0.813537  14.601154 Pt   0.000000   0.000000   0.000000   0.000000   0.000000
atom   2.798419   3.231368  14.487150 Ir   0.000000   0.000000   0.000000   0.000000   0.000000
atom   5.596950   0.000000   9.999949 Pt   0.000000   0.000000   0.000000   0.000000   0.000000
atom   4.197713   2.423550   9.999949 Pt   0.000000   0.000000   0.000000   0.000000   0.000000
atom   6.996188   2.423550   9.999949 Pt   0.000000   0.000000   0.000000   0.000000   0.000000
atom   8.395425   0.000000   9.999949 Ir   0.000000   0.000000   0.000000   0.000000   0.000000
atom   8.395537   1.615636  12.284950 Pt   0.000000   0.000000   0.000000   0.000000   0.000000
atom   6.996299   4.039186  12.284950 Pt   0.000000   0.000000   0.000000   0.000000   0.000000
atom   4.197824   4.039186  12.284950 Pt   0.000000   0.000000   0.000000   0.000000   0.000000
atom   5.597062   1.615636  12.284950 Ir   0.000000   0.000000   0.000000   0.000000   0.000000
atom   5.597006   3.220123  14.601154 Pt   0.000000   0.000000   0.000000   0.000000   0.000000
atom   6.986505   0.813440  14.601154 Pt   0.000000   0.000000   0.000000   0.000000   0.000000
atom   9.804401   0.813537  14.601154 Pt   0.000000   0.000000   0.000000   0.000000   0.000000
atom   8.395369   3.231368  14.487150 Ir   0.000000   0.000000   0.000000   0.000000   0.000000
atom  -2.798475   4.847101   9.999949 Pt   0.000000   0.000000   0.000000   0.000000   0.000000
atom  -4.197712   7.270651   9.999949 Pt   0.000000   0.000000   0.000000   0.000000   0.000000
atom  -1.399237   7.270651   9.999949 Pt   0.000000   0.000000   0.000000   0.000000   0.000000
atom   0.000000   4.847101   9.999949 Ir   0.000000   0.000000   0.000000   0.000000   0.000000
atom   0.000112   6.462737  12.284950 Pt   0.000000   0.000000   0.000000   0.000000   0.000000
atom  -1.399126   8.886287  12.284950 Pt   0.000000   0.000000   0.000000   0.000000   0.000000
atom  -4.197601   8.886287  12.284950 Pt   0.000000   0.000000   0.000000   0.000000   0.000000
atom  -2.798363   6.462737  12.284950 Ir   0.000000   0.000000   0.000000   0.000000   0.000000
atom  -2.798419   8.067224  14.601154 Pt   0.000000   0.000000   0.000000   0.000000   0.000000
atom  -1.408920   5.660541  14.601154 Pt   0.000000   0.000000   0.000000   0.000000   0.000000
atom   1.409032   5.660541  14.601154 Pt   0.000000   0.000000   0.000000   0.000000   0.000000
atom  -0.000056   8.078469  14.487150 Ir   0.000000   0.000000   0.000000   0.000000   0.000000
atom   2.798475   4.847101   9.999949 Pt   0.000000   0.000000   0.000000   0.000000   0.000000
atom   1.399238   7.270651   9.999949 Pt   0.000000   0.000000   0.000000   0.000000   0.000000
atom   4.197713   7.270651   9.999949 Pt   0.000000   0.000000   0.000000   0.000000   0.000000
atom   5.596950   4.847101   9.999949 Ir   0.000000   0.000000   0.000000   0.000000   0.000000
atom   5.597062   6.462737  12.284950 Pt   0.000000   0.000000   0.000000   0.000000   0.000000
atom   4.197824   8.886287  12.284950 Pt   0.000000   0.000000   0.000000   0.000000   0.000000
atom   1.399349   8.886287  12.284950 Pt   0.000000   0.000000   0.000000   0.000000   0.000000
atom   2.798587   6.462737  12.284950 Ir   0.000000   0.000000   0.000000   0.000000   0.000000
atom   2.798531   8.067224  14.601154 Pt   0.000000   0.000000   0.000000   0.000000   0.000000
atom   4.188030   5.660541  14.601154 Pt   0.000000   0.000000   0.000000   0.000000   0.000000
atom   7.005982   5.660541  14.601154 Pt   0.000000   0.000000   0.000000   0.000000   0.000000
atom   5.596894   8.078469  14.487150 Ir   0.000000   0.000000   0.000000   0.000000   0.000000
energy   0.000000
charge 0.0
end
begin
comment structure_Pd9Cu3
lattice  11.048300   0.000000   0.000000
lattice  -5.524150   9.568108   0.000000
lattice   0.000000   0.000000  24.510500
atom   0.000000   0.000000  10.000039 Pd   0.000000   0.000000   0.000000   0.000000   0.000000
atom  -1.381037   2.392027  10.000039 Pd   0.000000   0.000000   0.000000   0.000000   0.000000
atom   1.381038   2.392027  10.000039 Pd   0.000000   0.000000   0.000000   0.000000   0.000000
atom   2.762075   0.000000  10.000039 Cu   0.000000   0.000000   0.000000   0.000000   0.000000
atom   2.762075   1.594621  12.255250 Pd   0.000000   0.000000   0.000000   0.000000   0.000000
atom   1.381038   3.986648  12.255250 Pd   0.000000   0.000000   0.000000   0.000000   0.000000
atom  -1.381037   3.986648  12.255250 Pd   0.000000   0.000000   0.000000   0.000000   0.000000
atom  -0.000055   1.594717  12.255250 Cu   0.000000   0.000000   0.000000   0.000000   0.000000
atom   0.000000   3.177377  14.537913 Pd   0.000000   0.000000   0.000000   0.000000   0.000000
atom   1.370652   0.803338  14.537913 Pd   0.000000   0.000000   0.000000   0.000000   0.000000
atom   4.153387   0.803338  14.537913 Pd   0.000000   0.000000   0.000000   0.000000   0.000000
atom   2.762020   3.189338  14.455312 Cu   0.000000   0.000000   0.000000   0.000000   0.000000
atom   5.524150   0.000000  10.000039 Pd   0.000000   0.000000   0.000000   0.000000   0.000000
atom   4.143113   2.392027  10.000039 Pd   0.000000   0.000000   0.000000   0.000000   0.000000
atom   6.905188   2.392027  10.000039 Pd   0.000000   0.000000   0.000000   0.000000   0.000000
atom   8.286225   0.000000  10.000039 Cu   0.000000   0.000000   0.000000   0.000000   0.000000
atom   8.286225   1.594621  12.255250 Pd   0.000000   0.000000   0.000000   0.000000   0.000000
atom   6.905188   3.986648  12.255250 Pd   0.000000   0.000000   0.000000   0.000000   0.000000
atom   4.143113   3.986648  12.255250 Pd   0.000000   0.000000   0.000000   0.000000   0.000000
atom   5.524095   1.594717  12.255250 Cu   0.000000   0.000000   0.000000   0.000000   0.000000
atom   5.524150   3.177377  14.537913 Pd   0.000000   0.000000   0.000000   0.000000   0.000000
atom   6.894857   0.803243  14.537913 Pd   0.000000   0.000000   0.000000   0.000000   0.000000
atom   9.677537   0.803338  14.537913 Pd   0.000000   0.000000   0.000000   0.000000   0.000000
atom   8.286170   3.189338  14.455312 Cu   0.000000   0.000000   0.000000   0.000000   0.000000
atom  -2.762075   4.784054  10.000039 Pd   0.000000   0.000000   0.000000   0.000000   0.000000
atom  -4.143112   7.176081  10.000039 Pd   0.000000   0.000000   0.000000   0.000000   0.000000
atom  -1.381037   7.176081  10.000039 Pd   0.000000   0.000000   0.000000   0.000000   0.000000
atom   0.000000   4.784054  10.000039 Cu   0.000000   0.000000   0.000000   0.000000   0.000000
atom   0.000000   6.378675  12.255250 Pd   0.000000   0.000000   0.000000   0.000000   0.000000
atom  -1.381037   8.770702  12.255250 Pd   0.000000   0.000000   0.000000   0.000000   0.000000
atom  -4.143112   8.770702  12.255250 Pd   0.000000   0.000000   0.000000   0.000000   0.000000
atom  -2.762130   6.378771  12.255250 Cu   0.000000   0.000000   0.000000   0.000000   0.000000
atom  -2.762075   7.961432  14.537913 Pd   0.000000   0.000000   0.000000   0.000000   0.000000
atom  -1.391368   5.587297  14.537913 Pd   0.000000   0.000000   0.000000   0.000000   0.000000
atom   1.391312   5.587393  14.537913 Pd   0.000000   0.000000   0.000000   0.000000   0.000000
atom  -0.000055   7.973392  14.455312 Cu   0.000000   0.000000   0.000000   0.000000   0.000000
atom   2.762075   4.784054  10.000039 Pd   0.000000   0.000000   0.000000   0.000000   0.000000
atom   1.381038   7.176081  10.000039 Pd   0.000000   0.000000   0.000000   0.000000   0.000000
atom   4.143113   7.176081  10.000039 Pd   0.000000   0.000000   0.000000   0.000000   0.000000
atom   5.524150   4.784054  10.000039 Cu   0.000000   0.000000   0.000000   0.000000   0.000000
atom   5.524150   6.378675  12.255250 Pd   0.000000   0.000000   0.000000   0.000000   0.000000
atom   4.143113   8.770702  12.255250 Pd   0.000000   0.000000   0.000000   0.000000   0.000000
atom   1.381038   8.770702  12.255250 Pd   0.000000   0.000000   0.000000   0.000000   0.000000
atom   2.762020   6.378771  12.255250 Cu   0.000000   0.000000   0.000000   0.000000   0.000000
atom   2.762075   7.961432  14.537913 Pd   0.000000   0.000000   0.000000   0.000000   0.000000
atom   4.132782   5.587297  14.537913 Pd   0.000000   0.000000   0.000000   0.000000   0.000000
atom   6.915518   5.587297  14.537913 Pd   0.000000   0.000000   0.000000   0.000000   0.000000
atom   5.524095   7.973392  14.455312 Cu   0.000000   0.000000   0.000000   0.000000   0.000000
energy   0.000000
charge 0.0
end
begin
comment structure_Os9Pd3
lattice  10.961300   0.000000   0.000000
lattice  -5.480650   9.492764   0.000000
lattice   0.000000   0.000000  24.474900
atom   0.000000   0.000000   9.999955 Os   0.000000   0.000000   0.000000   0.000000   0.000000
atom  -1.370162   2.373191   9.999955 Os   0.000000   0.000000   0.000000   0.000000   0.000000
atom   1.370163   2.373191   9.999955 Os   0.000000   0.000000   0.000000   0.000000   0.000000
atom   2.740325   0.000000   9.999955 Pd   0.000000   0.000000   0.000000   0.000000   0.000000
atom   2.740435   1.582064  12.237450 Os   0.000000   0.000000   0.000000   0.000000   0.000000
atom   1.370272   3.955255  12.237450 Os   0.000000   0.000000   0.000000   0.000000   0.000000
atom  -1.370217   3.955350  12.237450 Os   0.000000   0.000000   0.000000   0.000000   0.000000
atom  -0.000055   1.582159  12.237450 Pd   0.000000   0.000000   0.000000   0.000000   0.000000
atom   0.000110   3.251841  14.383654 Os   0.000000   0.000000   0.000000   0.000000   0.000000
atom   1.446070   0.747175  14.383654 Os   0.000000   0.000000   0.000000   0.000000   0.000000
atom   4.034690   0.747175  14.383654 Os   0.000000   0.000000   0.000000   0.000000   0.000000
atom   2.740380   3.164223  14.468582 Pd   0.000000   0.000000   0.000000   0.000000   0.000000
atom   5.480650   0.000000   9.999955 Os   0.000000   0.000000   0.000000   0.000000   0.000000
atom   4.110488   2.373191   9.999955 Os   0.000000   0.000000   0.000000   0.000000   0.000000
atom   6.850812   2.373191   9.999955 Os   0.000000   0.000000   0.000000   0.000000   0.000000
atom   8.220975   0.000000   9.999955 Pd   0.000000   0.000000   0.000000   0.000000   0.000000
atom   8.221085   1.582064  12.237450 Os   0.000000   0.000000   0.000000   0.000000   0.000000
atom   6.850922   3.955255  12.237450 Os   0.000000   0.000000   0.000000   0.000000   0.000000
atom   4.110433   3.955350  12.237450 Os   0.000000   0.000000   0.000000   0.000000   0.000000
atom   5.480595   1.582159  12.237450 Pd   0.000000   0.000000   0.000000   0.000000   0.000000
atom   5.480760   3.251841  14.383654 Os   0.000000   0.000000   0.000000   0.000000   0.000000
atom   6.926720   0.747175  14.383654 Os   0.000000   0.000000   0.000000   0.000000   0.000000
atom   9.515340   0.747175  14.383654 Os   0.000000   0.000000   0.000000   0.000000   0.000000
atom   8.221030   3.164223  14.468582 Pd   0.000000   0.000000   0.000000   0.000000   0.000000
atom  -2.740325   4.746382   9.999955 Os   0.000000   0.000000   0.000000   0.000000   0.000000
atom   6.850813   7.119573   9.999955 Os   0.000000   0.000000   0.000000   0.000000   0.000000
atom  -1.370162   7.119573   9.999955 Os   0.000000   0.000000   0.000000   0.000000   0.000000
atom   0.000000   4.746382   9.999955 Pd   0.000000   0.000000   0.000000   0.000000   0.000000
atom   0.000055   6.328541  12.237450 Os   0.000000   0.000000   0.000000   0.000000   0.000000
atom  -1.370053   8.701637  12.237450 Os   0.000000   0.000000   0.000000   0.000000   0.000000
atom  -4.110542   8.701732  12.237450 Os   0.000000   0.000000   0.000000   0.000000   0.000000
atom  -2.740380   6.328541  12.237450 Pd   0.000000   0.000000   0.000000   0.000000   0.000000
atom  -2.740215   7.998223  14.383654 Os   0.000000   0.000000   0.000000   0.000000   0.000000
atom  -1.294255   5.493558  14.383654 Os   0.000000   0.000000   0.000000   0.000000   0.000000
atom   1.294365   5.493558  14.383654 Os   0.000000   0.000000   0.000000   0.000000   0.000000
atom   0.000055   7.910605  14.468582 Pd   0.000000   0.000000   0.000000   0.000000   0.000000
atom   2.740325   4.746382   9.999955 Os   0.000000   0.000000   0.000000   0.000000   0.000000
atom   1.370163   7.119573   9.999955 Os   0.000000   0.000000   0.000000   0.000000   0.000000
atom   4.110488   7.119573   9.999955 Os   0.000000   0.000000   0.000000   0.000000   0.000000
atom   5.480650   4.746382   9.999955 Pd   0.000000   0.000000   0.000000   0.000000   0.000000
atom   5.480760   6.328446  12.237450 Os   0.000000   0.000000   0.000000   0.000000   0.000000
atom   4.110597   8.701637  12.237450 Os   0.000000   0.000000   0.000000   0.000000   0.000000
atom   1.370108   8.701732  12.237450 Os   0.000000   0.000000   0.000000   0.000000   0.000000
atom   2.740270   6.328541  12.237450 Pd   0.000000   0.000000   0.000000   0.000000   0.000000
atom   2.740435   7.998223  14.383654 Os   0.000000   0.000000   0.000000   0.000000   0.000000
atom   4.186395   5.493558  14.383654 Os   0.000000   0.000000   0.000000   0.000000   0.000000
atom   6.775015   5.493558  14.383654 Os   0.000000   0.000000   0.000000   0.000000   0.000000
atom   5.480705   7.910605  14.468582 Pd   0.000000   0.000000   0.000000   0.000000   0.000000
energy   0.000000
charge 0.0
end
begin
comment structure_PdPd12
lattice  11.275300   0.000000   0.000000
lattice   5.637650   9.764696   0.000000
lattice   0.000000   0.000000  24.603100
atom   1.409413   0.813790   9.999930 Pd   0.000000   0.000000   0.000000   0.000000   0.000000
atom   4.228294   0.813692   9.999930 Pd   0.000000   0.000000   0.000000   0.000000   0.000000
atom   2.818825   3.254964   9.999930 Pd   0.000000   0.000000   0.000000   0.000000   0.000000
atom   5.637763   3.254964   9.999930 Pd   0.000000   0.000000   0.000000   0.000000   0.000000
atom   5.637706   1.627482  12.301550 Pd   0.000000   0.000000   0.000000   0.000000   0.000000
atom   2.818881   1.627482  12.301550 Pd   0.000000   0.000000   0.000000   0.000000   0.000000
atom   7.047062   4.068558  12.301550 Pd   0.000000   0.000000   0.000000   0.000000   0.000000
atom   4.228238   4.068558  12.301550 Pd   0.000000   0.000000   0.000000   0.000000   0.000000
atom   0.000000   0.000000  14.603170 Pd   0.000000   0.000000   0.000000   0.000000   0.000000
atom   2.818825   0.000000  14.603170 Pd   0.000000   0.000000   0.000000   0.000000   0.000000
atom   1.409413   2.441174  14.603170 Pd   0.000000   0.000000   0.000000   0.000000   0.000000
atom   4.228238   2.441174  14.603170 Pd   0.000000   0.000000   0.000000   0.000000   0.000000
atom   7.047063   0.813790   9.999930 Pd   0.000000   0.000000   0.000000   0.000000   0.000000
atom   9.865831   0.813692   9.999930 Pd   0.000000   0.000000   0.000000   0.000000   0.000000
atom   8.456419   3.254866   9.999930 Pd   0.000000   0.000000   0.000000   0.000000   0.000000
atom  11.275300   3.254964   9.999930 Pd   0.000000   0.000000   0.000000   0.000000   0.000000
atom  11.275356   1.627482  12.301550 Pd   0.000000   0.000000   0.000000   0.000000   0.000000
atom   8.456419   1.627482  12.301550 Pd   0.000000   0.000000   0.000000   0.000000   0.000000
atom  12.684712   4.068558  12.301550 Pd   0.000000   0.000000   0.000000   0.000000   0.000000
atom   9.865831   4.068656  12.301550 Pd   0.000000   0.000000   0.000000   0.000000   0.000000
atom   5.637650   0.000000  14.603170 Pd   0.000000   0.000000   0.000000   0.000000   0.000000
atom   8.456475   0.000000  14.603170 Pd   0.000000   0.000000   0.000000   0.000000   0.000000
atom   7.047062   2.441174  14.603170 Pd   0.000000   0.000000   0.000000   0.000000   0.000000
atom   9.865887   2.441174  14.603170 Pd   0.000000   0.000000   0.000000   0.000000   0.000000
atom   4.228238   5.696138   9.999930 Pd   0.000000   0.000000   0.000000   0.000000   0.000000
atom   7.047175   5.696138   9.999930 Pd   0.000000   0.000000   0.000000   0.000000   0.000000
atom   5.637650   8.137312   9.999930 Pd   0.000000   0.000000   0.000000   0.000000   0.000000
atom   8.456588   8.137312   9.999930 Pd   0.000000   0.000000   0.000000   0.000000   0.000000
atom   8.456475   6.509732  12.301550 Pd   0.000000   0.000000   0.000000   0.000000   0.000000
atom   5.637706   6.509830  12.301550 Pd   0.000000   0.000000   0.000000   0.000000   0.000000
atom   9.865887   8.950906  12.301550 Pd   0.000000   0.000000   0.000000   0.000000   0.000000
atom   7.047063   8.950906  12.301550 Pd   0.000000   0.000000   0.000000   0.000000   0.000000
atom   2.818825   4.882348  14.603170 Pd   0.000000   0.000000   0.000000   0.000000   0.000000
atom   5.637650   4.882348  14.603170 Pd   0.000000   0.000000   0.000000   0.000000   0.000000
atom   4.228238   7.323522  14.603170 Pd   0.000000   0.000000   0.000000   0.000000   0.000000
atom   7.047063   7.323522  14.603170 Pd   0.000000   0.000000   0.000000   0.000000   0.000000
atom   9.865888   5.696138   9.999930 Pd   0.000000   0.000000   0.000000   0.000000   0.000000
atom  12.684656   5.696040   9.999930 Pd   0.000000   0.000000   0.000000   0.000000   0.000000
atom  11.275300   8.137312   9.999930 Pd   0.000000   0.000000   0.000000   0.000000   0.000000
atom  14.094125   8.137312   9.999930 Pd   0.000000   0.000000   0.000000   0.000000   0.000000
atom  14.094181   6.509830  12.301550 Pd   0.000000   0.000000   0.000000   0.000000   0.000000
atom  11.275244   6.509830  12.301550 Pd   0.000000   0.000000   0.000000   0.000000   0.000000
atom  15.503538   8.950906  12.301550 Pd   0.000000   0.000000   0.000000   0.000000   0.000000
atom  12.684656   8.951004  12.301550 Pd   0.000000   0.000000   0.000000   0.000000   0.000000
atom   8.456475   4.882348  14.603170 Pd   0.000000   0.000000   0.000000   0.000000   0.000000
atom  11.275300   4.882348  14.603170 Pd   0.000000   0.000000   0.000000   0.000000   0.000000
atom   9.865887   7.323522  14.603170 Pd   0.000000   0.000000   0.000000   0.000000   0.000000
atom  12.684712   7.323522  14.603170 Pd   0.000000   0.000000   0.000000   0.000000   0.000000
energy   0.000000
charge 0.0
end
begin
comment structure_Os6Pt6
lattice  11.003700   0.000000   0.000000
lattice  -5.501831   9.650433   0.000000
lattice   0.000000   0.000000  24.520100
atom   0.000000   0.000000  10.000032 Os   0.000000   0.000000   0.000000   0.000000   0.000000
atom   2.750925   0.000000  10.000032 Os   0.000000   0.000000   0.000000   0.000000   0.000000
atom   1.375467   2.412608  10.000032 Pt   0.000000   0.000000   0.000000   0.000000   0.000000
atom  -1.375458   2.412608  10.000032 Pt   0.000000   0.000000   0.000000   0.000000   0.000000
atom   2.750928   1.568388  12.260050 Os   0.000000   0.000000   0.000000   0.000000   0.000000
atom   0.000003   1.568388  12.260050 Os   0.000000   0.000000   0.000000   0.000000   0.000000
atom  -1.375455   3.980996  12.260050 Pt   0.000000   0.000000   0.000000   0.000000   0.000000
atom   1.375470   3.980996  12.260050 Pt   0.000000   0.000000   0.000000   0.000000   0.000000
atom  -0.000049   3.087463  14.419535 Os   0.000000   0.000000   0.000000   0.000000   0.000000
atom   2.750986   3.087463  14.419535 Os   0.000000   0.000000   0.000000   0.000000   0.000000
atom   4.126389   0.762770  14.523010 Pt   0.000000   0.000000   0.000000   0.000000   0.000000
atom   1.375464   0.762770  14.523010 Pt   0.000000   0.000000   0.000000   0.000000   0.000000
atom   5.501850   0.000000  10.000032 Os   0.000000   0.000000   0.000000   0.000000   0.000000
atom   8.252775   0.000000  10.000032 Os   0.000000   0.000000   0.000000   0.000000   0.000000
atom   6.877317   2.412608  10.000032 Pt   0.000000   0.000000   0.000000   0.000000   0.000000
atom   4.126392   2.412608  10.000032 Pt   0.000000   0.000000   0.000000   0.000000   0.000000
atom   8.252778   1.568388  12.260050 Os   0.000000   0.000000   0.000000   0.000000   0.000000
atom   5.501853   1.568388  12.260050 Os   0.000000   0.000000   0.000000   0.000000   0.000000
atom   4.126395   3.980996  12.260050 Pt   0.000000   0.000000   0.000000   0.000000   0.000000
atom   6.877320   3.980996  12.260050 Pt   0.000000   0.000000   0.000000   0.000000   0.000000
atom   5.501801   3.087463  14.419535 Os   0.000000   0.000000   0.000000   0.000000   0.000000
atom   8.252836   3.087463  14.419535 Os   0.000000   0.000000   0.000000   0.000000   0.000000
atom   9.628239   0.762770  14.523010 Pt   0.000000   0.000000   0.000000   0.000000   0.000000
atom   6.877314   0.762770  14.523010 Pt   0.000000   0.000000   0.000000   0.000000   0.000000
atom  -2.750916   4.825216  10.000032 Os   0.000000   0.000000   0.000000   0.000000   0.000000
atom   0.000009   4.825216  10.000032 Os   0.000000   0.000000   0.000000   0.000000   0.000000
atom  -1.375448   7.237824  10.000032 Pt   0.000000   0.000000   0.000000   0.000000   0.000000
atom  -4.126373   7.237824  10.000032 Pt   0.000000   0.000000   0.000000   0.000000   0.000000
atom   0.000013   6.393605  12.260050 Os   0.000000   0.000000   0.000000   0.000000   0.000000
atom  -2.750912   6.393605  12.260050 Os   0.000000   0.000000   0.000000   0.000000   0.000000
atom  -4.126370   8.806213  12.260050 Pt   0.000000   0.000000   0.000000   0.000000   0.000000
atom  -1.375445   8.806213  12.260050 Pt   0.000000   0.000000   0.000000   0.000000   0.000000
atom  -2.750965   7.912679  14.419535 Os   0.000000   0.000000   0.000000   0.000000   0.000000
atom   0.000071   7.912679  14.419535 Os   0.000000   0.000000   0.000000   0.000000   0.000000
atom   1.375473   5.587986  14.523010 Pt   0.000000   0.000000   0.000000   0.000000   0.000000
atom  -1.375452   5.587986  14.523010 Pt   0.000000   0.000000   0.000000   0.000000   0.000000
atom   2.750934   4.825216  10.000032 Os   0.000000   0.000000   0.000000   0.000000   0.000000
atom   5.501859   4.825216  10.000032 Os   0.000000   0.000000   0.000000   0.000000   0.000000
atom   4.126402   7.237824  10.000032 Pt   0.000000   0.000000   0.000000   0.000000   0.000000
atom   1.375477   7.237824  10.000032 Pt   0.000000   0.000000   0.000000   0.000000   0.000000
atom   5.501863   6.393605  12.260050 Os   0.000000   0.000000   0.000000   0.000000   0.000000
atom   2.750938   6.393605  12.260050 Os   0.000000   0.000000   0.000000   0.000000   0.000000
atom   1.375480   8.806213  12.260050 Pt   0.000000   0.000000   0.000000   0.000000   0.000000
atom   4.126405   8.806213  12.260050 Pt   0.000000   0.000000   0.000000   0.000000   0.000000
atom   2.750885   7.912679  14.419535 Os   0.000000   0.000000   0.000000   0.000000   0.000000
atom   5.501921   7.912679  14.419535 Os   0.000000   0.000000   0.000000   0.000000   0.000000
atom   6.877323   5.587986  14.523010 Pt   0.000000   0.000000   0.000000   0.000000   0.000000
atom   4.126398   5.587986  14.523010 Pt   0.000000   0.000000   0.000000   0.000000   0.000000
energy   0.000000
charge 0.0
end
begin
comment structure_Os9Cu3
lattice  10.817300   0.000000   0.000000
lattice  -5.408650   9.368057   0.000000
lattice   0.000000   0.000000  24.416100
atom   0.000000   0.000000   9.999858 Os   0.000000   0.000000   0.000000   0.000000   0.000000
atom  -1.352162   2.342014   9.999858 Os   0.000000   0.000000   0.000000   0.000000   0.000000
atom   1.352163   2.342014   9.999858 Os   0.000000   0.000000   0.000000   0.000000   0.000000
atom   2.704325   0.000000   9.999858 Cu   0.000000   0.000000   0.000000   0.000000   0.000000
atom   2.704433   1.561280  12.208050 Os   0.000000   0.000000   0.000000   0.000000   0.000000
atom   1.352271   3.903294  12.208050 Os   0.000000   0.000000   0.000000   0.000000   0.000000
atom  -1.352217   3.903388  12.208050 Os   0.000000   0.000000   0.000000   0.000000   0.000000
atom   0.000000   1.561280  12.208050 Cu   0.000000   0.000000   0.000000   0.000000   0.000000
atom   0.000000   3.160220  14.354225 Os   0.000000   0.000000   0.000000   0.000000   0.000000
atom   1.384668   0.761904  14.354225 Os   0.000000   0.000000   0.000000   0.000000   0.000000
atom   4.023927   0.761998  14.354225 Os   0.000000   0.000000   0.000000   0.000000   0.000000
atom   2.704217   3.122748  14.410626 Cu   0.000000   0.000000   0.000000   0.000000   0.000000
atom   5.408650   0.000000   9.999858 Os   0.000000   0.000000   0.000000   0.000000   0.000000
atom   4.056488   2.342014   9.999858 Os   0.000000   0.000000   0.000000   0.000000   0.000000
atom   6.760812   2.342014   9.999858 Os   0.000000   0.000000   0.000000   0.000000   0.000000
atom   8.112975   0.000000   9.999858 Cu   0.000000   0.000000   0.000000   0.000000   0.000000
atom   8.113029   1.561374  12.208050 Os   0.000000   0.000000   0.000000   0.000000   0.000000
atom   6.760921   3.903294  12.208050 Os   0.000000   0.000000   0.000000   0.000000   0.000000
atom   4.056433   3.903388  12.208050 Os   0.000000   0.000000   0.000000   0.000000   0.000000
atom   5.408596   1.561374  12.208050 Cu   0.000000   0.000000   0.000000   0.000000   0.000000
atom   5.408650   3.160220  14.354225 Os   0.000000   0.000000   0.000000   0.000000   0.000000
atom   6.793318   0.761904  14.354225 Os   0.000000   0.000000   0.000000   0.000000   0.000000
atom   9.432577   0.761998  14.354225 Os   0.000000   0.000000   0.000000   0.000000   0.000000
atom   8.112867   3.122748  14.410626 Cu   0.000000   0.000000   0.000000   0.000000   0.000000
atom  -2.704325   4.684028   9.999858 Os   0.000000   0.000000   0.000000   0.000000   0.000000
atom  -4.056487   7.026042   9.999858 Os   0.000000   0.000000   0.000000   0.000000   0.000000
atom  -1.352162   7.026042   9.999858 Os   0.000000   0.000000   0.000000   0.000000   0.000000
atom   0.000000   4.684028   9.999858 Cu   0.000000   0.000000   0.000000   0.000000   0.000000
atom   0.000054   6.245402  12.208050 Os   0.000000   0.000000   0.000000   0.000000   0.000000
atom  -1.352054   8.587323  12.208050 Os   0.000000   0.000000   0.000000   0.000000   0.000000
atom  -4.056542   8.587416  12.208050 Os   0.000000   0.000000   0.000000   0.000000   0.000000
atom  -2.704325   6.245309  12.208050 Cu   0.000000   0.000000   0.000000   0.000000   0.000000
atom  -2.704325   7.844249  14.354225 Os   0.000000   0.000000   0.000000   0.000000   0.000000
atom  -1.319657   5.445932  14.354225 Os   0.000000   0.000000   0.000000   0.000000   0.000000
atom   1.319602   5.446026  14.354225 Os   0.000000   0.000000   0.000000   0.000000   0.000000
atom  -0.000108   7.806776  14.410626 Cu   0.000000   0.000000   0.000000   0.000000   0.000000
atom   2.704325   4.684028   9.999858 Os   0.000000   0.000000   0.000000   0.000000   0.000000
atom   1.352163   7.026042   9.999858 Os   0.000000   0.000000   0.000000   0.000000   0.000000
atom   4.056488   7.026042   9.999858 Os   0.000000   0.000000   0.000000   0.000000   0.000000
atom   5.408650   4.684028   9.999858 Cu   0.000000   0.000000   0.000000   0.000000   0.000000
atom   5.408704   6.245402  12.208050 Os   0.000000   0.000000   0.000000   0.000000   0.000000
atom   4.056596   8.587323  12.208050 Os   0.000000   0.000000   0.000000   0.000000   0.000000
atom   1.352108   8.587416  12.208050 Os   0.000000   0.000000   0.000000   0.000000   0.000000
atom   2.704271   6.245402  12.208050 Cu   0.000000   0.000000   0.000000   0.000000   0.000000
atom   2.704325   7.844249  14.354225 Os   0.000000   0.000000   0.000000   0.000000   0.000000
atom   4.088993   5.445932  14.354225 Os   0.000000   0.000000   0.000000   0.000000   0.000000
atom   6.728252   5.446026  14.354225 Os   0.000000   0.000000   0.000000   0.000000   0.000000
atom   5.408542   7.806776  14.410626 Cu   0.000000   0.000000   0.000000   0.000000   0.000000
energy   0.000000
charge 0.0
end
